LAMMPS data file via write_data, version 2 Aug 2023, timestep = 50000, units = real

19 atoms
1 atom types

-15 15 xlo xhi
-15 15 ylo yhi
-0.5 0.5 zlo zhi

Masses

1 1

Atoms # full

11 0 1 0 -1.4884296091809341 -14.37290423167531 0 0 1 0
6 0 1 0 3.5152876883266186 -12.628869862156812 0 0 0 0
15 0 1 0 9.541226373088085 -13.52434472507011 0 0 0 0
5 0 1 0 -4.157189867251291 -9.730963086796214 0 0 0 0
4 0 1 0 5.780353189080228 -9.37045670124893 0 0 0 0
17 0 1 0 10.200430226650912 -9.853194855446699 0 0 0 0
8 0 1 0 -13.501953877117206 -6.75801377865209 0 0 1 0
12 0 1 0 12.615407489593293 -7.517267915475214 0 -1 0 0
3 0 1 0 -6.160797944231632 -7.117408400795981 0 0 0 0
16 0 1 0 4.286705265478955 -5.52109245328401 0 0 0 0
18 0 1 0 -8.770053785341815 -2.5857449338790897 0 0 0 0
13 0 1 0 1.5488631816369787 -3.5505136654885137 0 0 0 0
1 0 1 0 7.618031446850924 -3.076032353173429 0 0 0 0
19 0 1 0 -12.57582000757562 -0.22199290843310868 0 0 0 0
2 0 1 0 4.010981474465251 0.142350637802904 0 0 0 0
9 0 1 0 -12.012883824514478 3.8465473250883297 0 1 0 0
10 0 1 0 2.911225090360745 5.090656075121653 0 0 0 0
7 0 1 0 -13.144389318806537 7.41267529586063 0 0 0 0
14 0 1 0 -0.35449663231529444 9.637244813692847 0 0 0 0

Velocities

11 0.00944446998336593 -0.0071378817039736055 0
6 0.0009949888083743627 -0.005576751780622537 0
15 0.007126142073975919 -0.0054472370606838405 0
5 -0.002027213702396423 -0.009164869394007395 0
4 -0.00033852432829273825 -0.011201401399369681 0
17 -0.009553562498807108 -0.0032845023886650827 0
8 0.012152852305740352 0.0013818200689146654 0
12 0.009894851627112013 -0.0001821691412895645 0
3 -0.008795433970486207 0.0009016944637105099 0
16 0.007841449656592947 0.011732301714635322 0
18 0.0038023682099018906 0.005619811140696473 0
13 0.005330853989183681 0.007986268375202358 0
1 0.012698422784408492 -0.0017779824882584944 0
19 0.0017178965063477606 0.004907708961382555 0
2 0.0007584795071613739 -0.002369918818836884 0
9 0.001290516080629726 0.01646688611720048 0
10 -0.00973608795250326 0.01167612234853038 0
7 0.0033611965719851835 -0.0026909835560420484 0
14 0.001319140923562531 0.0012292857806377616 0
